27
Atoms. Timestep: 0
W 0 0 0
W 4.08 0 0
W 8.16 0 0
W 0 4.08 0
W 4.08 4.08 0
W 8.16 4.08 0
W 0 8.16 0
W 4.08 8.16 0
W 8.16 8.16 0
W 0 0 4.08
W 4.08 0 4.08
W 8.16 0 4.08
W 0 4.08 4.08
W 4.08 4.08 4.08
W 8.16 4.08 4.08
W 0 8.16 4.08
W 4.08 8.16 4.08
W 8.16 8.16 4.08
W 0 0 8.16
W 4.08 0 8.16
W 8.16 0 8.16
W 0 4.08 8.16
W 4.08 4.08 8.16
W 8.16 4.08 8.16
W 0 8.16 8.16
W 4.08 8.16 8.16
W 8.16 8.16 8.16
