LAMMPS data file via write_data, version 21 Jan 2015-ICMS, timestep = 0

27 atoms
1 atom types
2 bond types
243 bonds
0.0000000000000000e+000 1.2240000000000000e+001 xlo xhi
0.0000000000000000e+000 1.2240000000000000e+001 ylo yhi
0.0000000000000000e+000 1.2240000000000000e+001 zlo zhi
0.0000000000000000e+000 0.0000000000000000e+000 0.0000000000000000e+000 xy xz yz

Masses

1 18.0145

Atoms # full

1 0 1 0.0000000000000000e+000 0.0000000000000000e+000 0.0000000000000000e+000 0.0000000000000000e+000 0 0 0
2 0 1 0.0000000000000000e+000 4.0800000000000010e+000 0.0000000000000000e+000 0.0000000000000000e+000 0 0 0
3 0 1 0.0000000000000000e+000 8.1600000000000019e+000 0.0000000000000000e+000 0.0000000000000000e+000 0 0 0
4 0 1 0.0000000000000000e+000 0.0000000000000000e+000 4.0800000000000010e+000 0.0000000000000000e+000 0 0 0
5 0 1 0.0000000000000000e+000 4.0800000000000010e+000 4.0800000000000010e+000 0.0000000000000000e+000 0 0 0
6 0 1 0.0000000000000000e+000 8.1600000000000019e+000 4.0800000000000010e+000 0.0000000000000000e+000 0 0 0
7 0 1 0.0000000000000000e+000 0.0000000000000000e+000 8.1600000000000019e+000 0.0000000000000000e+000 0 0 0
8 0 1 0.0000000000000000e+000 4.0800000000000010e+000 8.1600000000000019e+000 0.0000000000000000e+000 0 0 0
9 0 1 0.0000000000000000e+000 8.1600000000000019e+000 8.1600000000000019e+000 0.0000000000000000e+000 0 0 0
10 0 1 0.0000000000000000e+000 0.0000000000000000e+000 0.0000000000000000e+000 4.0800000000000010e+000 0 0 0
11 0 1 0.0000000000000000e+000 4.0800000000000010e+000 0.0000000000000000e+000 4.0800000000000010e+000 0 0 0
12 0 1 0.0000000000000000e+000 8.1600000000000019e+000 0.0000000000000000e+000 4.0800000000000010e+000 0 0 0
13 0 1 0.0000000000000000e+000 0.0000000000000000e+000 4.0800000000000010e+000 4.0800000000000010e+000 0 0 0
14 0 1 0.0000000000000000e+000 4.0800000000000010e+000 4.0800000000000010e+000 4.0800000000000010e+000 0 0 0
15 0 1 0.0000000000000000e+000 8.1600000000000019e+000 4.0800000000000010e+000 4.0800000000000010e+000 0 0 0
16 0 1 0.0000000000000000e+000 0.0000000000000000e+000 8.1600000000000019e+000 4.0800000000000010e+000 0 0 0
17 0 1 0.0000000000000000e+000 4.0800000000000010e+000 8.1600000000000019e+000 4.0800000000000010e+000 0 0 0
18 0 1 0.0000000000000000e+000 8.1600000000000019e+000 8.1600000000000019e+000 4.0800000000000010e+000 0 0 0
19 0 1 0.0000000000000000e+000 0.0000000000000000e+000 0.0000000000000000e+000 8.1600000000000019e+000 0 0 0
20 0 1 0.0000000000000000e+000 4.0800000000000010e+000 0.0000000000000000e+000 8.1600000000000019e+000 0 0 0
21 0 1 0.0000000000000000e+000 8.1600000000000019e+000 0.0000000000000000e+000 8.1600000000000019e+000 0 0 0
22 0 1 0.0000000000000000e+000 0.0000000000000000e+000 4.0800000000000010e+000 8.1600000000000019e+000 0 0 0
23 0 1 0.0000000000000000e+000 4.0800000000000010e+000 4.0800000000000010e+000 8.1600000000000019e+000 0 0 0
24 0 1 0.0000000000000000e+000 8.1600000000000019e+000 4.0800000000000010e+000 8.1600000000000019e+000 0 0 0
25 0 1 0.0000000000000000e+000 0.0000000000000000e+000 8.1600000000000019e+000 8.1600000000000019e+000 0 0 0
26 0 1 0.0000000000000000e+000 4.0800000000000010e+000 8.1600000000000019e+000 8.1600000000000019e+000 0 0 0
27 0 1 0.0000000000000000e+000 8.1600000000000019e+000 8.1600000000000019e+000 8.1600000000000019e+000 0 0 0

Velocities

1 0.0000000000000000e+000 0.0000000000000000e+000 0.0000000000000000e+000
2 0.0000000000000000e+000 0.0000000000000000e+000 0.0000000000000000e+000
3 0.0000000000000000e+000 0.0000000000000000e+000 0.0000000000000000e+000
4 0.0000000000000000e+000 0.0000000000000000e+000 0.0000000000000000e+000
5 0.0000000000000000e+000 0.0000000000000000e+000 0.0000000000000000e+000
6 0.0000000000000000e+000 0.0000000000000000e+000 0.0000000000000000e+000
7 0.0000000000000000e+000 0.0000000000000000e+000 0.0000000000000000e+000
8 0.0000000000000000e+000 0.0000000000000000e+000 0.0000000000000000e+000
9 0.0000000000000000e+000 0.0000000000000000e+000 0.0000000000000000e+000
10 0.0000000000000000e+000 0.0000000000000000e+000 0.0000000000000000e+000
11 0.0000000000000000e+000 0.0000000000000000e+000 0.0000000000000000e+000
12 0.0000000000000000e+000 0.0000000000000000e+000 0.0000000000000000e+000
13 0.0000000000000000e+000 0.0000000000000000e+000 0.0000000000000000e+000
14 0.0000000000000000e+000 0.0000000000000000e+000 0.0000000000000000e+000
15 0.0000000000000000e+000 0.0000000000000000e+000 0.0000000000000000e+000
16 0.0000000000000000e+000 0.0000000000000000e+000 0.0000000000000000e+000
17 0.0000000000000000e+000 0.0000000000000000e+000 0.0000000000000000e+000
18 0.0000000000000000e+000 0.0000000000000000e+000 0.0000000000000000e+000
19 0.0000000000000000e+000 0.0000000000000000e+000 0.0000000000000000e+000
20 0.0000000000000000e+000 0.0000000000000000e+000 0.0000000000000000e+000
21 0.0000000000000000e+000 0.0000000000000000e+000 0.0000000000000000e+000
22 0.0000000000000000e+000 0.0000000000000000e+000 0.0000000000000000e+000
23 0.0000000000000000e+000 0.0000000000000000e+000 0.0000000000000000e+000
24 0.0000000000000000e+000 0.0000000000000000e+000 0.0000000000000000e+000
25 0.0000000000000000e+000 0.0000000000000000e+000 0.0000000000000000e+000
26 0.0000000000000000e+000 0.0000000000000000e+000 0.0000000000000000e+000
27 0.0000000000000000e+000 0.0000000000000000e+000 0.0000000000000000e+000

Bonds

1  1  1  2
2  1  1  4
3  1  1  10
4  2  1  5
5  2  1  13
6  2  1  11
7  2  1  6
8  2  1  20
9  2  1  16
10  1  1  3
11  1  1  7
12  1  1  19
13  2  1  9
14  2  1  25
15  2  1  21
16  2  1  8
17  2  1  12
18  2  1  22
19  1  2  3
20  1  2  5
21  1  2  11
22  2  2  6
23  2  2  14
24  2  2  12
25  2  2  4
26  2  2  21
27  2  2  17
28  1  2  8
29  1  2  20
30  2  2  7
31  2  2  26
32  2  2  19
33  2  2  9
34  2  2  10
35  2  2  23
36  1  3  6
37  1  3  12
38  2  3  4
39  2  3  15
40  2  3  10
41  2  3  5
42  2  3  19
43  2  3  18
44  1  3  9
45  1  3  21
46  2  3  8
47  2  3  27
48  2  3  20
49  2  3  7
50  2  3  11
51  2  3  24
52  1  4  5
53  1  4  7
54  1  4  13
55  2  4  8
56  2  4  16
57  2  4  14
58  2  4  9
59  2  4  23
60  2  4  10
61  1  4  6
62  1  4  22
63  2  4  19
64  2  4  24
65  2  4  15
66  2  4  25
67  1  5  6
68  1  5  8
69  1  5  14
70  2  5  9
71  2  5  17
72  2  5  15
73  2  5  7
74  2  5  24
75  2  5  11
76  1  5  23
77  2  5  20
78  2  5  22
79  2  5  13
80  2  5  26
81  1  6  9
82  1  6  15
83  2  6  7
84  2  6  18
85  2  6  13
86  2  6  8
87  2  6  22
88  2  6  12
89  1  6  24
90  2  6  21
91  2  6  23
92  2  6  14
93  2  6  27
94  1  7  8
95  1  7  16
96  2  7  10
97  2  7  17
98  2  7  26
99  2  7  13
100  1  7  9
101  1  7  25
102  2  7  22
103  2  7  27
104  2  7  18
105  2  7  19
106  1  8  9
107  1  8  17
108  2  8  11
109  2  8  18
110  2  8  27
111  2  8  14
112  1  8  26
113  2  8  23
114  2  8  25
115  2  8  16
116  2  8  20
117  1  9  18
118  2  9  12
119  2  9  16
120  2  9  25
121  2  9  15
122  1  9  27
123  2  9  24
124  2  9  26
125  2  9  17
126  2  9  21
127  1  10  11
128  1  10  13
129  1  10  19
130  2  10  14
131  2  10  22
132  2  10  20
133  2  10  15
134  2  10  25
135  1  10  12
136  1  10  16
137  2  10  18
138  2  10  17
139  2  10  21
140  1  11  12
141  1  11  14
142  1  11  20
143  2  11  15
144  2  11  23
145  2  11  21
146  2  11  13
147  2  11  26
148  1  11  17
149  2  11  16
150  2  11  18
151  2  11  19
152  1  12  15
153  1  12  21
154  2  12  13
155  2  12  24
156  2  12  19
157  2  12  14
158  2  12  27
159  1  12  18
160  2  12  17
161  2  12  16
162  2  12  20
163  1  13  14
164  1  13  16
165  1  13  22
166  2  13  17
167  2  13  25
168  2  13  23
169  2  13  18
170  2  13  19
171  1  13  15
172  2  13  24
173  1  14  15
174  1  14  17
175  1  14  23
176  2  14  18
177  2  14  26
178  2  14  24
179  2  14  16
180  2  14  20
181  2  14  22
182  1  15  18
183  1  15  24
184  2  15  16
185  2  15  27
186  2  15  22
187  2  15  17
188  2  15  21
189  2  15  23
190  1  16  17
191  1  16  25
192  2  16  19
193  2  16  26
194  2  16  22
195  1  16  18
196  2  16  27
197  1  17  18
198  1  17  26
199  2  17  20
200  2  17  27
201  2  17  23
202  2  17  25
203  1  18  27
204  2  18  21
205  2  18  25
206  2  18  24
207  2  18  26
208  1  19  20
209  1  19  22
210  2  19  23
211  2  19  24
212  1  19  21
213  1  19  25
214  2  19  27
215  2  19  26
216  1  20  21
217  1  20  23
218  2  20  24
219  2  20  22
220  1  20  26
221  2  20  25
222  2  20  27
223  1  21  24
224  2  21  22
225  2  21  23
226  1  21  27
227  2  21  26
228  2  21  25
229  1  22  23
230  1  22  25
231  2  22  26
232  2  22  27
233  1  22  24
234  1  23  24
235  1  23  26
236  2  23  27
237  2  23  25
238  1  24  27
239  2  24  25
240  2  24  26
241  1  25  26
242  1  25  27
243  1  26  27