1000
Atoms. Timestep: 0
1 0 0 0
1 4.08 0 0
1 8.16 0 0
1 12.24 0 0
1 16.32 0 0
1 20.4 0 0
1 24.48 0 0
1 28.56 0 0
1 32.64 0 0
1 36.72 0 0
1 0 4.08 0
1 4.08 4.08 0
1 8.16 4.08 0
1 12.24 4.08 0
1 16.32 4.08 0
1 20.4 4.08 0
1 24.48 4.08 0
1 28.56 4.08 0
1 32.64 4.08 0
1 36.72 4.08 0
1 0 8.16 0
1 4.08 8.16 0
1 8.16 8.16 0
1 12.24 8.16 0
1 16.32 8.16 0
1 20.4 8.16 0
1 24.48 8.16 0
1 28.56 8.16 0
1 32.64 8.16 0
1 36.72 8.16 0
1 0 12.24 0
1 4.08 12.24 0
1 8.16 12.24 0
1 12.24 12.24 0
1 16.32 12.24 0
1 20.4 12.24 0
1 24.48 12.24 0
1 28.56 12.24 0
1 32.64 12.24 0
1 36.72 12.24 0
1 0 16.32 0
1 4.08 16.32 0
1 8.16 16.32 0
1 12.24 16.32 0
1 16.32 16.32 0
1 20.4 16.32 0
1 24.48 16.32 0
1 28.56 16.32 0
1 32.64 16.32 0
1 36.72 16.32 0
1 0 20.4 0
1 4.08 20.4 0
1 8.16 20.4 0
1 12.24 20.4 0
1 16.32 20.4 0
1 20.4 20.4 0
1 24.48 20.4 0
1 28.56 20.4 0
1 32.64 20.4 0
1 36.72 20.4 0
1 0 24.48 0
1 4.08 24.48 0
1 8.16 24.48 0
1 12.24 24.48 0
1 16.32 24.48 0
1 20.4 24.48 0
1 24.48 24.48 0
1 28.56 24.48 0
1 32.64 24.48 0
1 36.72 24.48 0
1 0 28.56 0
1 4.08 28.56 0
1 8.16 28.56 0
1 12.24 28.56 0
1 16.32 28.56 0
1 20.4 28.56 0
1 24.48 28.56 0
1 28.56 28.56 0
1 32.64 28.56 0
1 36.72 28.56 0
1 0 32.64 0
1 4.08 32.64 0
1 8.16 32.64 0
1 12.24 32.64 0
1 16.32 32.64 0
1 20.4 32.64 0
1 24.48 32.64 0
1 28.56 32.64 0
1 32.64 32.64 0
1 36.72 32.64 0
1 0 36.72 0
1 4.08 36.72 0
1 8.16 36.72 0
1 12.24 36.72 0
1 16.32 36.72 0
1 20.4 36.72 0
1 24.48 36.72 0
1 28.56 36.72 0
1 32.64 36.72 0
1 36.72 36.72 0
1 0 0 4.08
1 4.08 0 4.08
1 8.16 0 4.08
1 12.24 0 4.08
1 16.32 0 4.08
1 20.4 0 4.08
1 24.48 0 4.08
1 28.56 0 4.08
1 32.64 0 4.08
1 36.72 0 4.08
1 0 4.08 4.08
1 4.08 4.08 4.08
1 8.16 4.08 4.08
1 12.24 4.08 4.08
1 16.32 4.08 4.08
1 20.4 4.08 4.08
1 24.48 4.08 4.08
1 28.56 4.08 4.08
1 32.64 4.08 4.08
1 36.72 4.08 4.08
1 0 8.16 4.08
1 4.08 8.16 4.08
1 8.16 8.16 4.08
1 12.24 8.16 4.08
1 16.32 8.16 4.08
1 20.4 8.16 4.08
1 24.48 8.16 4.08
1 28.56 8.16 4.08
1 32.64 8.16 4.08
1 36.72 8.16 4.08
1 0 12.24 4.08
1 4.08 12.24 4.08
1 8.16 12.24 4.08
1 12.24 12.24 4.08
1 16.32 12.24 4.08
1 20.4 12.24 4.08
1 24.48 12.24 4.08
1 28.56 12.24 4.08
1 32.64 12.24 4.08
1 36.72 12.24 4.08
1 0 16.32 4.08
1 4.08 16.32 4.08
1 8.16 16.32 4.08
1 12.24 16.32 4.08
1 16.32 16.32 4.08
1 20.4 16.32 4.08
1 24.48 16.32 4.08
1 28.56 16.32 4.08
1 32.64 16.32 4.08
1 36.72 16.32 4.08
1 0 20.4 4.08
1 4.08 20.4 4.08
1 8.16 20.4 4.08
1 12.24 20.4 4.08
1 16.32 20.4 4.08
1 20.4 20.4 4.08
1 24.48 20.4 4.08
1 28.56 20.4 4.08
1 32.64 20.4 4.08
1 36.72 20.4 4.08
1 0 24.48 4.08
1 4.08 24.48 4.08
1 8.16 24.48 4.08
1 12.24 24.48 4.08
1 16.32 24.48 4.08
1 20.4 24.48 4.08
1 24.48 24.48 4.08
1 28.56 24.48 4.08
1 32.64 24.48 4.08
1 36.72 24.48 4.08
1 0 28.56 4.08
1 4.08 28.56 4.08
1 8.16 28.56 4.08
1 12.24 28.56 4.08
1 16.32 28.56 4.08
1 20.4 28.56 4.08
1 24.48 28.56 4.08
1 28.56 28.56 4.08
1 32.64 28.56 4.08
1 36.72 28.56 4.08
1 0 32.64 4.08
1 4.08 32.64 4.08
1 8.16 32.64 4.08
1 12.24 32.64 4.08
1 16.32 32.64 4.08
1 20.4 32.64 4.08
1 24.48 32.64 4.08
1 28.56 32.64 4.08
1 32.64 32.64 4.08
1 36.72 32.64 4.08
1 0 36.72 4.08
1 4.08 36.72 4.08
1 8.16 36.72 4.08
1 12.24 36.72 4.08
1 16.32 36.72 4.08
1 20.4 36.72 4.08
1 24.48 36.72 4.08
1 28.56 36.72 4.08
1 32.64 36.72 4.08
1 36.72 36.72 4.08
1 0 0 8.16
1 4.08 0 8.16
1 8.16 0 8.16
1 12.24 0 8.16
1 16.32 0 8.16
1 20.4 0 8.16
1 24.48 0 8.16
1 28.56 0 8.16
1 32.64 0 8.16
1 36.72 0 8.16
1 0 4.08 8.16
1 4.08 4.08 8.16
1 8.16 4.08 8.16
1 12.24 4.08 8.16
1 16.32 4.08 8.16
1 20.4 4.08 8.16
1 24.48 4.08 8.16
1 28.56 4.08 8.16
1 32.64 4.08 8.16
1 36.72 4.08 8.16
1 0 8.16 8.16
1 4.08 8.16 8.16
1 8.16 8.16 8.16
1 12.24 8.16 8.16
1 16.32 8.16 8.16
1 20.4 8.16 8.16
1 24.48 8.16 8.16
1 28.56 8.16 8.16
1 32.64 8.16 8.16
1 36.72 8.16 8.16
1 0 12.24 8.16
1 4.08 12.24 8.16
1 8.16 12.24 8.16
1 12.24 12.24 8.16
1 16.32 12.24 8.16
1 20.4 12.24 8.16
1 24.48 12.24 8.16
1 28.56 12.24 8.16
1 32.64 12.24 8.16
1 36.72 12.24 8.16
1 0 16.32 8.16
1 4.08 16.32 8.16
1 8.16 16.32 8.16
1 12.24 16.32 8.16
1 16.32 16.32 8.16
1 20.4 16.32 8.16
1 24.48 16.32 8.16
1 28.56 16.32 8.16
1 32.64 16.32 8.16
1 36.72 16.32 8.16
1 0 20.4 8.16
1 4.08 20.4 8.16
1 8.16 20.4 8.16
1 12.24 20.4 8.16
1 16.32 20.4 8.16
1 20.4 20.4 8.16
1 24.48 20.4 8.16
1 28.56 20.4 8.16
1 32.64 20.4 8.16
1 36.72 20.4 8.16
1 0 24.48 8.16
1 4.08 24.48 8.16
1 8.16 24.48 8.16
1 12.24 24.48 8.16
1 16.32 24.48 8.16
1 20.4 24.48 8.16
1 24.48 24.48 8.16
1 28.56 24.48 8.16
1 32.64 24.48 8.16
1 36.72 24.48 8.16
1 0 28.56 8.16
1 4.08 28.56 8.16
1 8.16 28.56 8.16
1 12.24 28.56 8.16
1 16.32 28.56 8.16
1 20.4 28.56 8.16
1 24.48 28.56 8.16
1 28.56 28.56 8.16
1 32.64 28.56 8.16
1 36.72 28.56 8.16
1 0 32.64 8.16
1 4.08 32.64 8.16
1 8.16 32.64 8.16
1 12.24 32.64 8.16
1 16.32 32.64 8.16
1 20.4 32.64 8.16
1 24.48 32.64 8.16
1 28.56 32.64 8.16
1 32.64 32.64 8.16
1 36.72 32.64 8.16
1 0 36.72 8.16
1 4.08 36.72 8.16
1 8.16 36.72 8.16
1 12.24 36.72 8.16
1 16.32 36.72 8.16
1 20.4 36.72 8.16
1 24.48 36.72 8.16
1 28.56 36.72 8.16
1 32.64 36.72 8.16
1 36.72 36.72 8.16
1 0 0 12.24
1 4.08 0 12.24
1 8.16 0 12.24
1 12.24 0 12.24
1 16.32 0 12.24
1 20.4 0 12.24
1 24.48 0 12.24
1 28.56 0 12.24
1 32.64 0 12.24
1 36.72 0 12.24
1 0 4.08 12.24
1 4.08 4.08 12.24
1 8.16 4.08 12.24
1 12.24 4.08 12.24
1 16.32 4.08 12.24
1 20.4 4.08 12.24
1 24.48 4.08 12.24
1 28.56 4.08 12.24
1 32.64 4.08 12.24
1 36.72 4.08 12.24
1 0 8.16 12.24
1 4.08 8.16 12.24
1 8.16 8.16 12.24
1 12.24 8.16 12.24
1 16.32 8.16 12.24
1 20.4 8.16 12.24
1 24.48 8.16 12.24
1 28.56 8.16 12.24
1 32.64 8.16 12.24
1 36.72 8.16 12.24
1 0 12.24 12.24
1 4.08 12.24 12.24
1 8.16 12.24 12.24
1 12.24 12.24 12.24
1 16.32 12.24 12.24
1 20.4 12.24 12.24
1 24.48 12.24 12.24
1 28.56 12.24 12.24
1 32.64 12.24 12.24
1 36.72 12.24 12.24
1 0 16.32 12.24
1 4.08 16.32 12.24
1 8.16 16.32 12.24
1 12.24 16.32 12.24
1 16.32 16.32 12.24
1 20.4 16.32 12.24
1 24.48 16.32 12.24
1 28.56 16.32 12.24
1 32.64 16.32 12.24
1 36.72 16.32 12.24
1 0 20.4 12.24
1 4.08 20.4 12.24
1 8.16 20.4 12.24
1 12.24 20.4 12.24
1 16.32 20.4 12.24
1 20.4 20.4 12.24
1 24.48 20.4 12.24
1 28.56 20.4 12.24
1 32.64 20.4 12.24
1 36.72 20.4 12.24
1 0 24.48 12.24
1 4.08 24.48 12.24
1 8.16 24.48 12.24
1 12.24 24.48 12.24
1 16.32 24.48 12.24
1 20.4 24.48 12.24
1 24.48 24.48 12.24
1 28.56 24.48 12.24
1 32.64 24.48 12.24
1 36.72 24.48 12.24
1 0 28.56 12.24
1 4.08 28.56 12.24
1 8.16 28.56 12.24
1 12.24 28.56 12.24
1 16.32 28.56 12.24
1 20.4 28.56 12.24
1 24.48 28.56 12.24
1 28.56 28.56 12.24
1 32.64 28.56 12.24
1 36.72 28.56 12.24
1 0 32.64 12.24
1 4.08 32.64 12.24
1 8.16 32.64 12.24
1 12.24 32.64 12.24
1 16.32 32.64 12.24
1 20.4 32.64 12.24
1 24.48 32.64 12.24
1 28.56 32.64 12.24
1 32.64 32.64 12.24
1 36.72 32.64 12.24
1 0 36.72 12.24
1 4.08 36.72 12.24
1 8.16 36.72 12.24
1 12.24 36.72 12.24
1 16.32 36.72 12.24
1 20.4 36.72 12.24
1 24.48 36.72 12.24
1 28.56 36.72 12.24
1 32.64 36.72 12.24
1 36.72 36.72 12.24
1 0 0 16.32
1 4.08 0 16.32
1 8.16 0 16.32
1 12.24 0 16.32
1 16.32 0 16.32
1 20.4 0 16.32
1 24.48 0 16.32
1 28.56 0 16.32
1 32.64 0 16.32
1 36.72 0 16.32
1 0 4.08 16.32
1 4.08 4.08 16.32
1 8.16 4.08 16.32
1 12.24 4.08 16.32
1 16.32 4.08 16.32
1 20.4 4.08 16.32
1 24.48 4.08 16.32
1 28.56 4.08 16.32
1 32.64 4.08 16.32
1 36.72 4.08 16.32
1 0 8.16 16.32
1 4.08 8.16 16.32
1 8.16 8.16 16.32
1 12.24 8.16 16.32
1 16.32 8.16 16.32
1 20.4 8.16 16.32
1 24.48 8.16 16.32
1 28.56 8.16 16.32
1 32.64 8.16 16.32
1 36.72 8.16 16.32
1 0 12.24 16.32
1 4.08 12.24 16.32
1 8.16 12.24 16.32
1 12.24 12.24 16.32
1 16.32 12.24 16.32
1 20.4 12.24 16.32
1 24.48 12.24 16.32
1 28.56 12.24 16.32
1 32.64 12.24 16.32
1 36.72 12.24 16.32
1 0 16.32 16.32
1 4.08 16.32 16.32
1 8.16 16.32 16.32
1 12.24 16.32 16.32
1 16.32 16.32 16.32
1 20.4 16.32 16.32
1 24.48 16.32 16.32
1 28.56 16.32 16.32
1 32.64 16.32 16.32
1 36.72 16.32 16.32
1 0 20.4 16.32
1 4.08 20.4 16.32
1 8.16 20.4 16.32
1 12.24 20.4 16.32
1 16.32 20.4 16.32
1 20.4 20.4 16.32
1 24.48 20.4 16.32
1 28.56 20.4 16.32
1 32.64 20.4 16.32
1 36.72 20.4 16.32
1 0 24.48 16.32
1 4.08 24.48 16.32
1 8.16 24.48 16.32
1 12.24 24.48 16.32
1 16.32 24.48 16.32
1 20.4 24.48 16.32
1 24.48 24.48 16.32
1 28.56 24.48 16.32
1 32.64 24.48 16.32
1 36.72 24.48 16.32
1 0 28.56 16.32
1 4.08 28.56 16.32
1 8.16 28.56 16.32
1 12.24 28.56 16.32
1 16.32 28.56 16.32
1 20.4 28.56 16.32
1 24.48 28.56 16.32
1 28.56 28.56 16.32
1 32.64 28.56 16.32
1 36.72 28.56 16.32
1 0 32.64 16.32
1 4.08 32.64 16.32
1 8.16 32.64 16.32
1 12.24 32.64 16.32
1 16.32 32.64 16.32
1 20.4 32.64 16.32
1 24.48 32.64 16.32
1 28.56 32.64 16.32
1 32.64 32.64 16.32
1 36.72 32.64 16.32
1 0 36.72 16.32
1 4.08 36.72 16.32
1 8.16 36.72 16.32
1 12.24 36.72 16.32
1 16.32 36.72 16.32
1 20.4 36.72 16.32
1 24.48 36.72 16.32
1 28.56 36.72 16.32
1 32.64 36.72 16.32
1 36.72 36.72 16.32
1 0 0 20.4
1 4.08 0 20.4
1 8.16 0 20.4
1 12.24 0 20.4
1 16.32 0 20.4
1 20.4 0 20.4
1 24.48 0 20.4
1 28.56 0 20.4
1 32.64 0 20.4
1 36.72 0 20.4
1 0 4.08 20.4
1 4.08 4.08 20.4
1 8.16 4.08 20.4
1 12.24 4.08 20.4
1 16.32 4.08 20.4
1 20.4 4.08 20.4
1 24.48 4.08 20.4
1 28.56 4.08 20.4
1 32.64 4.08 20.4
1 36.72 4.08 20.4
1 0 8.16 20.4
1 4.08 8.16 20.4
1 8.16 8.16 20.4
1 12.24 8.16 20.4
1 16.32 8.16 20.4
1 20.4 8.16 20.4
1 24.48 8.16 20.4
1 28.56 8.16 20.4
1 32.64 8.16 20.4
1 36.72 8.16 20.4
1 0 12.24 20.4
1 4.08 12.24 20.4
1 8.16 12.24 20.4
1 12.24 12.24 20.4
1 16.32 12.24 20.4
1 20.4 12.24 20.4
1 24.48 12.24 20.4
1 28.56 12.24 20.4
1 32.64 12.24 20.4
1 36.72 12.24 20.4
1 0 16.32 20.4
1 4.08 16.32 20.4
1 8.16 16.32 20.4
1 12.24 16.32 20.4
1 16.32 16.32 20.4
1 20.4 16.32 20.4
1 24.48 16.32 20.4
1 28.56 16.32 20.4
1 32.64 16.32 20.4
1 36.72 16.32 20.4
1 0 20.4 20.4
1 4.08 20.4 20.4
1 8.16 20.4 20.4
1 12.24 20.4 20.4
1 16.32 20.4 20.4
1 20.4 20.4 20.4
1 24.48 20.4 20.4
1 28.56 20.4 20.4
1 32.64 20.4 20.4
1 36.72 20.4 20.4
1 0 24.48 20.4
1 4.08 24.48 20.4
1 8.16 24.48 20.4
1 12.24 24.48 20.4
1 16.32 24.48 20.4
1 20.4 24.48 20.4
1 24.48 24.48 20.4
1 28.56 24.48 20.4
1 32.64 24.48 20.4
1 36.72 24.48 20.4
1 0 28.56 20.4
1 4.08 28.56 20.4
1 8.16 28.56 20.4
1 12.24 28.56 20.4
1 16.32 28.56 20.4
1 20.4 28.56 20.4
1 24.48 28.56 20.4
1 28.56 28.56 20.4
1 32.64 28.56 20.4
1 36.72 28.56 20.4
1 0 32.64 20.4
1 4.08 32.64 20.4
1 8.16 32.64 20.4
1 12.24 32.64 20.4
1 16.32 32.64 20.4
1 20.4 32.64 20.4
1 24.48 32.64 20.4
1 28.56 32.64 20.4
1 32.64 32.64 20.4
1 36.72 32.64 20.4
1 0 36.72 20.4
1 4.08 36.72 20.4
1 8.16 36.72 20.4
1 12.24 36.72 20.4
1 16.32 36.72 20.4
1 20.4 36.72 20.4
1 24.48 36.72 20.4
1 28.56 36.72 20.4
1 32.64 36.72 20.4
1 36.72 36.72 20.4
1 0 0 24.48
1 4.08 0 24.48
1 8.16 0 24.48
1 12.24 0 24.48
1 16.32 0 24.48
1 20.4 0 24.48
1 24.48 0 24.48
1 28.56 0 24.48
1 32.64 0 24.48
1 36.72 0 24.48
1 0 4.08 24.48
1 4.08 4.08 24.48
1 8.16 4.08 24.48
1 12.24 4.08 24.48
1 16.32 4.08 24.48
1 20.4 4.08 24.48
1 24.48 4.08 24.48
1 28.56 4.08 24.48
1 32.64 4.08 24.48
1 36.72 4.08 24.48
1 0 8.16 24.48
1 4.08 8.16 24.48
1 8.16 8.16 24.48
1 12.24 8.16 24.48
1 16.32 8.16 24.48
1 20.4 8.16 24.48
1 24.48 8.16 24.48
1 28.56 8.16 24.48
1 32.64 8.16 24.48
1 36.72 8.16 24.48
1 0 12.24 24.48
1 4.08 12.24 24.48
1 8.16 12.24 24.48
1 12.24 12.24 24.48
1 16.32 12.24 24.48
1 20.4 12.24 24.48
1 24.48 12.24 24.48
1 28.56 12.24 24.48
1 32.64 12.24 24.48
1 36.72 12.24 24.48
1 0 16.32 24.48
1 4.08 16.32 24.48
1 8.16 16.32 24.48
1 12.24 16.32 24.48
1 16.32 16.32 24.48
1 20.4 16.32 24.48
1 24.48 16.32 24.48
1 28.56 16.32 24.48
1 32.64 16.32 24.48
1 36.72 16.32 24.48
1 0 20.4 24.48
1 4.08 20.4 24.48
1 8.16 20.4 24.48
1 12.24 20.4 24.48
1 16.32 20.4 24.48
1 20.4 20.4 24.48
1 24.48 20.4 24.48
1 28.56 20.4 24.48
1 32.64 20.4 24.48
1 36.72 20.4 24.48
1 0 24.48 24.48
1 4.08 24.48 24.48
1 8.16 24.48 24.48
1 12.24 24.48 24.48
1 16.32 24.48 24.48
1 20.4 24.48 24.48
1 24.48 24.48 24.48
1 28.56 24.48 24.48
1 32.64 24.48 24.48
1 36.72 24.48 24.48
1 0 28.56 24.48
1 4.08 28.56 24.48
1 8.16 28.56 24.48
1 12.24 28.56 24.48
1 16.32 28.56 24.48
1 20.4 28.56 24.48
1 24.48 28.56 24.48
1 28.56 28.56 24.48
1 32.64 28.56 24.48
1 36.72 28.56 24.48
1 0 32.64 24.48
1 4.08 32.64 24.48
1 8.16 32.64 24.48
1 12.24 32.64 24.48
1 16.32 32.64 24.48
1 20.4 32.64 24.48
1 24.48 32.64 24.48
1 28.56 32.64 24.48
1 32.64 32.64 24.48
1 36.72 32.64 24.48
1 0 36.72 24.48
1 4.08 36.72 24.48
1 8.16 36.72 24.48
1 12.24 36.72 24.48
1 16.32 36.72 24.48
1 20.4 36.72 24.48
1 24.48 36.72 24.48
1 28.56 36.72 24.48
1 32.64 36.72 24.48
1 36.72 36.72 24.48
1 0 0 28.56
1 4.08 0 28.56
1 8.16 0 28.56
1 12.24 0 28.56
1 16.32 0 28.56
1 20.4 0 28.56
1 24.48 0 28.56
1 28.56 0 28.56
1 32.64 0 28.56
1 36.72 0 28.56
1 0 4.08 28.56
1 4.08 4.08 28.56
1 8.16 4.08 28.56
1 12.24 4.08 28.56
1 16.32 4.08 28.56
1 20.4 4.08 28.56
1 24.48 4.08 28.56
1 28.56 4.08 28.56
1 32.64 4.08 28.56
1 36.72 4.08 28.56
1 0 8.16 28.56
1 4.08 8.16 28.56
1 8.16 8.16 28.56
1 12.24 8.16 28.56
1 16.32 8.16 28.56
1 20.4 8.16 28.56
1 24.48 8.16 28.56
1 28.56 8.16 28.56
1 32.64 8.16 28.56
1 36.72 8.16 28.56
1 0 12.24 28.56
1 4.08 12.24 28.56
1 8.16 12.24 28.56
1 12.24 12.24 28.56
1 16.32 12.24 28.56
1 20.4 12.24 28.56
1 24.48 12.24 28.56
1 28.56 12.24 28.56
1 32.64 12.24 28.56
1 36.72 12.24 28.56
1 0 16.32 28.56
1 4.08 16.32 28.56
1 8.16 16.32 28.56
1 12.24 16.32 28.56
1 16.32 16.32 28.56
1 20.4 16.32 28.56
1 24.48 16.32 28.56
1 28.56 16.32 28.56
1 32.64 16.32 28.56
1 36.72 16.32 28.56
1 0 20.4 28.56
1 4.08 20.4 28.56
1 8.16 20.4 28.56
1 12.24 20.4 28.56
1 16.32 20.4 28.56
1 20.4 20.4 28.56
1 24.48 20.4 28.56
1 28.56 20.4 28.56
1 32.64 20.4 28.56
1 36.72 20.4 28.56
1 0 24.48 28.56
1 4.08 24.48 28.56
1 8.16 24.48 28.56
1 12.24 24.48 28.56
1 16.32 24.48 28.56
1 20.4 24.48 28.56
1 24.48 24.48 28.56
1 28.56 24.48 28.56
1 32.64 24.48 28.56
1 36.72 24.48 28.56
1 0 28.56 28.56
1 4.08 28.56 28.56
1 8.16 28.56 28.56
1 12.24 28.56 28.56
1 16.32 28.56 28.56
1 20.4 28.56 28.56
1 24.48 28.56 28.56
1 28.56 28.56 28.56
1 32.64 28.56 28.56
1 36.72 28.56 28.56
1 0 32.64 28.56
1 4.08 32.64 28.56
1 8.16 32.64 28.56
1 12.24 32.64 28.56
1 16.32 32.64 28.56
1 20.4 32.64 28.56
1 24.48 32.64 28.56
1 28.56 32.64 28.56
1 32.64 32.64 28.56
1 36.72 32.64 28.56
1 0 36.72 28.56
1 4.08 36.72 28.56
1 8.16 36.72 28.56
1 12.24 36.72 28.56
1 16.32 36.72 28.56
1 20.4 36.72 28.56
1 24.48 36.72 28.56
1 28.56 36.72 28.56
1 32.64 36.72 28.56
1 36.72 36.72 28.56
1 0 0 32.64
1 4.08 0 32.64
1 8.16 0 32.64
1 12.24 0 32.64
1 16.32 0 32.64
1 20.4 0 32.64
1 24.48 0 32.64
1 28.56 0 32.64
1 32.64 0 32.64
1 36.72 0 32.64
1 0 4.08 32.64
1 4.08 4.08 32.64
1 8.16 4.08 32.64
1 12.24 4.08 32.64
1 16.32 4.08 32.64
1 20.4 4.08 32.64
1 24.48 4.08 32.64
1 28.56 4.08 32.64
1 32.64 4.08 32.64
1 36.72 4.08 32.64
1 0 8.16 32.64
1 4.08 8.16 32.64
1 8.16 8.16 32.64
1 12.24 8.16 32.64
1 16.32 8.16 32.64
1 20.4 8.16 32.64
1 24.48 8.16 32.64
1 28.56 8.16 32.64
1 32.64 8.16 32.64
1 36.72 8.16 32.64
1 0 12.24 32.64
1 4.08 12.24 32.64
1 8.16 12.24 32.64
1 12.24 12.24 32.64
1 16.32 12.24 32.64
1 20.4 12.24 32.64
1 24.48 12.24 32.64
1 28.56 12.24 32.64
1 32.64 12.24 32.64
1 36.72 12.24 32.64
1 0 16.32 32.64
1 4.08 16.32 32.64
1 8.16 16.32 32.64
1 12.24 16.32 32.64
1 16.32 16.32 32.64
1 20.4 16.32 32.64
1 24.48 16.32 32.64
1 28.56 16.32 32.64
1 32.64 16.32 32.64
1 36.72 16.32 32.64
1 0 20.4 32.64
1 4.08 20.4 32.64
1 8.16 20.4 32.64
1 12.24 20.4 32.64
1 16.32 20.4 32.64
1 20.4 20.4 32.64
1 24.48 20.4 32.64
1 28.56 20.4 32.64
1 32.64 20.4 32.64
1 36.72 20.4 32.64
1 0 24.48 32.64
1 4.08 24.48 32.64
1 8.16 24.48 32.64
1 12.24 24.48 32.64
1 16.32 24.48 32.64
1 20.4 24.48 32.64
1 24.48 24.48 32.64
1 28.56 24.48 32.64
1 32.64 24.48 32.64
1 36.72 24.48 32.64
1 0 28.56 32.64
1 4.08 28.56 32.64
1 8.16 28.56 32.64
1 12.24 28.56 32.64
1 16.32 28.56 32.64
1 20.4 28.56 32.64
1 24.48 28.56 32.64
1 28.56 28.56 32.64
1 32.64 28.56 32.64
1 36.72 28.56 32.64
1 0 32.64 32.64
1 4.08 32.64 32.64
1 8.16 32.64 32.64
1 12.24 32.64 32.64
1 16.32 32.64 32.64
1 20.4 32.64 32.64
1 24.48 32.64 32.64
1 28.56 32.64 32.64
1 32.64 32.64 32.64
1 36.72 32.64 32.64
1 0 36.72 32.64
1 4.08 36.72 32.64
1 8.16 36.72 32.64
1 12.24 36.72 32.64
1 16.32 36.72 32.64
1 20.4 36.72 32.64
1 24.48 36.72 32.64
1 28.56 36.72 32.64
1 32.64 36.72 32.64
1 36.72 36.72 32.64
1 0 0 36.72
1 4.08 0 36.72
1 8.16 0 36.72
1 12.24 0 36.72
1 16.32 0 36.72
1 20.4 0 36.72
1 24.48 0 36.72
1 28.56 0 36.72
1 32.64 0 36.72
1 36.72 0 36.72
1 0 4.08 36.72
1 4.08 4.08 36.72
1 8.16 4.08 36.72
1 12.24 4.08 36.72
1 16.32 4.08 36.72
1 20.4 4.08 36.72
1 24.48 4.08 36.72
1 28.56 4.08 36.72
1 32.64 4.08 36.72
1 36.72 4.08 36.72
1 0 8.16 36.72
1 4.08 8.16 36.72
1 8.16 8.16 36.72
1 12.24 8.16 36.72
1 16.32 8.16 36.72
1 20.4 8.16 36.72
1 24.48 8.16 36.72
1 28.56 8.16 36.72
1 32.64 8.16 36.72
1 36.72 8.16 36.72
1 0 12.24 36.72
1 4.08 12.24 36.72
1 8.16 12.24 36.72
1 12.24 12.24 36.72
1 16.32 12.24 36.72
1 20.4 12.24 36.72
1 24.48 12.24 36.72
1 28.56 12.24 36.72
1 32.64 12.24 36.72
1 36.72 12.24 36.72
1 0 16.32 36.72
1 4.08 16.32 36.72
1 8.16 16.32 36.72
1 12.24 16.32 36.72
1 16.32 16.32 36.72
1 20.4 16.32 36.72
1 24.48 16.32 36.72
1 28.56 16.32 36.72
1 32.64 16.32 36.72
1 36.72 16.32 36.72
1 0 20.4 36.72
1 4.08 20.4 36.72
1 8.16 20.4 36.72
1 12.24 20.4 36.72
1 16.32 20.4 36.72
1 20.4 20.4 36.72
1 24.48 20.4 36.72
1 28.56 20.4 36.72
1 32.64 20.4 36.72
1 36.72 20.4 36.72
1 0 24.48 36.72
1 4.08 24.48 36.72
1 8.16 24.48 36.72
1 12.24 24.48 36.72
1 16.32 24.48 36.72
1 20.4 24.48 36.72
1 24.48 24.48 36.72
1 28.56 24.48 36.72
1 32.64 24.48 36.72
1 36.72 24.48 36.72
1 0 28.56 36.72
1 4.08 28.56 36.72
1 8.16 28.56 36.72
1 12.24 28.56 36.72
1 16.32 28.56 36.72
1 20.4 28.56 36.72
1 24.48 28.56 36.72
1 28.56 28.56 36.72
1 32.64 28.56 36.72
1 36.72 28.56 36.72
1 0 32.64 36.72
1 4.08 32.64 36.72
1 8.16 32.64 36.72
1 12.24 32.64 36.72
1 16.32 32.64 36.72
1 20.4 32.64 36.72
1 24.48 32.64 36.72
1 28.56 32.64 36.72
1 32.64 32.64 36.72
1 36.72 32.64 36.72
1 0 36.72 36.72
1 4.08 36.72 36.72
1 8.16 36.72 36.72
1 12.24 36.72 36.72
1 16.32 36.72 36.72
1 20.4 36.72 36.72
1 24.48 36.72 36.72
1 28.56 36.72 36.72
1 32.64 36.72 36.72
1 36.72 36.72 36.72
1000
Atoms. Timestep: 10000
1 17.284 17.2394 17.2082
1 16.9598 16.6016 16.5609
1 17.8473 16.8241 16.7872
1 18.7047 16.8039 16.7665
1 19.5521 16.8055 16.7681
1 20.4 16.8055 16.7681
1 21.2475 16.8041 16.7667
1 22.1038 16.8227 16.7858
1 22.9607 16.6258 16.585
1 22.8227 17.2265 17.1941
1 16.6048 16.9785 16.576
1 16.8755 16.8886 24.2627
1 17.8626 16.9256 24.5014
1 18.704 16.9222 24.4674
1 19.5521 16.9231 24.4691
1 20.4 16.9231 24.4691
1 21.2481 16.9223 24.4675
1 22.0893 16.9246 24.4984
1 23.0482 16.8884 24.2801
1 23.4161 16.9544 16.542
1 16.837 17.8558 16.7875
1 16.9207 17.8617 24.4983
1 17.84 17.842 16.3032
1 18.7044 17.8346 16.2614
1 19.5521 17.8347 16.2638
1 20.4 17.8347 16.2638
1 21.2477 17.8347 16.2615
1 22.1125 17.8416 16.302
1 23.0197 17.8667 24.515
1 23.2028 17.8431 16.7637
1 16.8161 18.7125 16.7673
1 16.9162 18.7028 24.4653
1 17.8327 18.7061 16.2617
1 18.7042 18.7054 16.2131
1 19.5521 18.7055 16.2158
1 20.4 18.7055 16.2158
1 21.2479 18.7055 16.2132
1 22.1194 18.7052 16.2605
1 23.0214 18.7077 24.4819
1 23.2239 18.6996 16.7429
1 16.8177 19.5593 16.7688
1 16.9171 19.5503 24.4669
1 17.8328 19.5532 16.264
1 18.7042 19.5527 16.2158
1 19.5521 19.5527 16.2185
1 20.4 19.5527 16.2184
1 21.2479 19.5528 16.2159
1 22.1194 19.5523 16.2629
1 23.0206 19.5552 24.4835
1 23.2222 19.5463 16.7445
1 16.8177 20.4066 16.7688
1 16.9171 20.3975 24.4669
1 17.8328 20.4004 16.264
1 18.7042 20.4 16.2158
1 19.5521 20.4 16.2184
1 20.4 20.4 16.2184
1 21.2479 20.4 16.2159
1 22.1194 20.3996 16.2629
1 23.0206 20.4024 24.4835
1 23.2222 20.3937 16.7445
1 16.8163 21.2534 16.7674
1 16.9164 21.245 24.4653
1 17.8328 21.2475 16.2618
1 18.7042 21.2472 16.2132
1 19.5521 21.2472 16.2159
1 20.4 21.2472 16.2159
1 21.2479 21.2473 16.2133
1 22.1195 21.2467 16.2606
1 23.0215 21.2498 24.482
1 23.224 21.2404 16.7429
1 16.8338 22.1092 16.7867
1 16.9178 22.0851 24.4966
1 17.8397 22.1114 16.3021
1 18.7044 22.1182 16.2603
1 19.5521 22.1181 16.2627
1 20.4 22.1181 16.2627
1 21.2477 22.1182 16.2604
1 22.1121 22.1107 16.301
1 23.0189 22.0915 24.5134
1 23.2015 22.0972 16.764
1 16.6502 22.9687 16.5744
1 16.8883 23.0521 24.2781
1 17.8618 23.0168 24.5155
1 18.7041 23.0195 24.4826
1 19.5521 23.0186 24.4842
1 20.4 23.0186 24.4842
1 21.2481 23.0194 24.4826
1 22.0898 23.0178 24.5148
1 23.0576 23.049 24.2935
1 23.4323 22.9788 16.559
1 17.2039 22.7894 17.1962
1 16.9607 23.4262 16.554
1 17.8474 23.1988 16.7641
1 18.7047 23.2211 16.7436
1 19.5521 23.2193 16.7452
1 20.4 23.2193 16.7452
1 21.2474 23.221 16.7435
1 22.1048 23.1997 16.7652
1 22.9916 23.4178 16.5445
1 22.7413 22.7726 17.1828
1 16.6179 16.5718 16.9922
1 16.8757 24.2672 16.9042
1 17.8626 24.5032 16.9399
1 18.704 24.4697 16.9368
1 19.5521 24.4714 16.9377
1 20.4 24.4714 16.9377
1 21.2481 24.4699 16.9369
1 22.0894 24.5003 16.939
1 23.0483 24.2845 16.9039
1 23.404 16.5386 16.9698
1 24.2689 16.8939 16.9021
1 17.0375 17.0487 17.0579
1 17.8474 17.005 17.0168
1 18.7051 17.0069 17.0185
1 19.5521 17.0072 17.0188
1 20.4 17.0072 17.0188
1 21.247 17.007 17.0185
1 22.1054 17.0059 17.0178
1 22.8969 17.0383 17.0472
1 24.1176 16.868 16.8794
1 24.5096 17.8717 16.938
1 17.0011 17.8429 17.0192
1 17.8455 17.8477 16.988
1 18.7048 17.8464 16.9911
1 19.5521 17.8466 16.9916
1 20.4 17.8466 16.9916
1 21.2472 17.8465 16.9911
1 22.1074 17.8464 16.989
1 22.9373 17.8545 17.0116
1 23.8888 17.8501 16.9253
1 24.4751 18.7121 16.9351
1 17.0019 18.7009 17.0207
1 17.8445 18.7069 16.9908
1 18.7048 18.706 16.9948
1 19.5521 18.7061 16.9953
1 20.4 18.706 16.9953
1 21.2473 18.7061 16.9948
1 22.1078 18.7053 16.992
1 22.9358 18.7118 17.0133
1 23.9185 18.6984 16.9139
1 24.4768 19.5595 16.936
1 17.0023 19.5472 17.021
1 17.8447 19.5535 16.9913
1 18.7048 19.5526 16.9953
1 19.5521 19.5527 16.9958
1 20.4 19.5527 16.9958
1 21.2473 19.5528 16.9953
1 22.1077 19.5519 16.9925
1 22.9355 19.5581 17.0137
1 23.9166 19.5459 16.9149
1 24.4768 20.4068 16.936
1 17.0023 20.3945 17.021
1 17.8447 20.4009 16.9913
1 18.7048 20.4 16.9953
1 19.5521 20.4 16.9958
1 20.4 20.4 16.9958
1 21.2473 20.4001 16.9953
1 22.1076 20.3992 16.9925
1 22.9355 20.4055 17.0137
1 23.9166 20.3931 16.9149
1 24.4754 21.2542 16.9352
1 17.0021 21.241 17.0207
1 17.8446 21.2475 16.9908
1 18.7048 21.2466 16.9948
1 19.5521 21.2467 16.9953
1 20.4 21.2467 16.9953
1 21.2473 21.2467 16.9948
1 22.1079 21.2458 16.992
1 22.936 21.2516 17.0133
1 23.9187 21.2406 16.9139
1 24.5042 22.0951 16.9375
1 17 22.0978 17.0199
1 17.8449 22.1066 16.9885
1 18.7049 22.1065 16.9918
1 19.5521 22.1064 16.9923
1 20.4 22.1064 16.9923
1 21.2473 22.1066 16.9918
1 22.1069 22.1053 16.9896
1 22.9359 22.111 17.012
1 23.8848 22.0886 16.9256
1 24.2975 23.0573 16.9023
1 17.0379 22.8986 17.0501
1 17.8462 22.9336 17.0122
1 18.7052 22.9332 17.0142
1 19.5521 22.9327 17.0145
1 20.4 22.9327 17.0145
1 21.2469 22.9331 17.0141
1 22.1059 22.9344 17.0131
1 22.9079 22.8979 17.0385
1 24.1513 23.0732 16.8783
1 16.4955 23.3647 16.9674
1 16.8763 24.1306 16.8791
1 17.8555 23.8923 16.9237
1 18.704 23.9238 16.9127
1 19.5521 23.9218 16.9137
1 20.4 23.9218 16.9137
1 21.2481 23.9238 16.9126
1 22.0971 23.8915 16.925
1 23.0898 24.1509 16.8759
1 23.3159 23.3689 16.9645
1 16.8371 16.793 17.8631
1 16.9199 24.5069 17.8704
1 17.84 16.3071 17.85
1 18.7044 16.2652 17.8428
1 19.5521 16.2676 17.8428
1 20.4 16.2676 17.8428
1 21.2477 16.2653 17.8428
1 22.1125 16.3058 17.8497
1 23.02 24.524 17.8749
1 23.2033 16.7689 17.8517
1 24.5073 16.9354 17.8702
1 17.0017 17.0159 17.8392
1 17.8454 16.9856 17.8447
1 18.7048 16.9886 17.8433
1 19.5521 16.9891 17.8435
1 20.4 16.9891 17.8435
1 21.2472 16.9886 17.8434
1 22.1075 16.9865 17.8435
1 22.9366 17.0091 17.8499
1 23.8911 16.9213 17.8497
1 16.3112 17.8486 17.8498
1 16.9835 17.8421 17.8447
1 17.8599 17.8621 17.8641
1 18.7042 17.8603 17.8625
1 19.5521 17.8606 17.8627
1 20.4 17.8606 17.8627
1 21.2478 17.8605 17.8626
1 22.0933 17.8606 17.8628
1 22.9659 17.8592 17.861
1 23.6697 17.8575 17.8601
1 16.2679 18.7125 17.8425
1 16.9851 18.702 17.8432
1 17.8586 18.7064 17.8624
1 18.7042 18.7053 17.8608
1 19.5521 18.7054 17.861
1 20.4 18.7054 17.861
1 21.2479 18.7055 17.8609
1 22.094 18.7046 17.8612
1 22.9654 18.7102 17.8596
1 23.7021 18.6987 17.8605
1 16.2705 19.5596 17.8426
1 16.9857 19.5485 17.8434
1 17.8588 19.5536 17.8626
1 18.7042 19.5526 17.861
1 19.5521 19.5527 17.8613
1 20.4 19.5527 17.8613
1 21.2479 19.5528 17.8612
1 22.0939 19.5518 17.8614
1 22.965 19.5569 17.8598
1 23.6997 19.5458 17.8606
1 16.2704 20.4069 17.8426
1 16.9857 20.3959 17.8434
1 17.8588 20.4009 17.8626
1 18.7042 20.3999 17.861
1 19.5521 20.4 17.8613
1 20.4 20.4 17.8613
1 21.2479 20.4001 17.8611
1 22.0938 20.3991 17.8614
1 22.9649 20.4043 17.8598
1 23.6996 20.3931 17.8606
1 16.2683 21.2539 17.8425
1 16.9853 21.2425 17.8433
1 17.8587 21.2481 17.8625
1 18.7042 21.2472 17.8609
1 19.5521 21.2473 17.8612
1 20.4 21.2473 17.8612
1 21.2479 21.2473 17.861
1 22.0941 21.2463 17.8613
1 22.9656 21.2508 17.8597
1 23.7024 21.2401 17.8606
1 16.3072 22.118 17.8494
1 16.9821 22.1014 17.8435
1 17.8593 22.0926 17.8627
1 18.7042 22.0927 17.8611
1 19.5521 22.0926 17.8614
1 20.4 22.0926 17.8614
1 21.2479 22.0929 17.8612
1 22.0928 22.0912 17.8615
1 22.9644 22.1041 17.8596
1 23.6647 22.0821 17.8594
1 24.5442 23.0278 17.8747
1 17.0129 22.9409 17.8501
1 17.8523 22.9618 17.8609
1 18.7048 22.9624 17.8597
1 19.5521 22.9619 17.8598
1 20.4 22.9619 17.8598
1 21.2473 22.9624 17.8597
1 22.1001 22.9627 17.8597
1 22.9433 22.9296 17.8614
1 23.9348 23.0307 17.8562
1 16.7337 23.1686 17.851
1 16.9299 23.906 17.8496
1 17.8625 23.6706 17.8598
1 18.7044 23.705 17.8604
1 19.5521 23.7024 17.8604
1 20.4 23.7024 17.8604
1 21.2477 23.705 17.8604
1 22.0901 23.669 17.8592
1 23.0475 23.9282 17.8562
1 23.1127 23.1589 17.838
1 16.8165 16.7719 18.7192
1 16.9158 24.4729 18.7106
1 17.8327 16.2644 18.7136
1 18.7042 16.2157 18.713
1 19.5521 16.2183 18.7131
1 20.4 16.2183 18.7131
1 21.2479 16.2158 18.7131
1 22.1194 16.2632 18.7128
1 23.0214 24.4899 18.7151
1 23.224 16.7474 18.7075
1 24.4735 16.9317 18.7104
1 17.0026 17.0165 18.6974
1 17.8444 16.9873 18.7042
1 18.7048 16.9911 18.7032
1 19.5521 16.9916 18.7032
1 20.4 16.9916 18.7032
1 21.2473 16.9911 18.7033
1 22.1079 16.9884 18.7027
1 22.9351 17.0097 18.7076
1 23.9199 16.9089 18.6979
1 16.2682 17.8414 18.7134
1 16.985 17.841 18.7044
1 17.8586 17.8608 18.7084
1 18.7042 17.8591 18.7074
1 19.5521 17.8593 18.7075
1 20.4 17.8593 18.7075
1 21.2479 17.8592 18.7075
1 22.094 17.8594 18.7067
1 22.9654 17.8582 18.7118
1 23.7018 17.8581 18.7011
1 16.2178 18.7123 18.7128
1 16.9873 18.7018 18.7033
1 17.8572 18.7063 18.7074
1 18.7042 18.7053 18.7065
1 19.5521 18.7054 18.7066
1 20.4 18.7054 18.7065
1 21.2479 18.7055 18.7066
1 22.0947 18.7046 18.7058
1 22.9643 18.7103 18.711
1 23.7333 18.6987 18.7005
1 16.2207 19.5595 18.7128
1 16.9879 19.5483 18.7034
1 17.8575 19.5536 18.7075
1 18.7042 19.5526 18.7066
1 19.5521 19.5527 18.7066
1 20.4 19.5527 18.7066
1 21.2479 19.5528 18.7067
1 22.0945 19.5519 18.7059
1 22.9639 19.5571 18.7111
1 23.731 19.5459 18.7005
1 16.2207 20.4068 18.7128
1 16.9879 20.3957 18.7034
1 17.8575 20.4009 18.7074
1 18.7042 20.3999 18.7065
1 19.5521 20.4 18.7066
1 20.4 20.4 18.7066
1 21.2479 20.4001 18.7067
1 22.0945 20.3992 18.7059
1 22.9639 20.4044 18.7111
1 23.731 20.3932 18.7005
1 16.2183 21.254 18.7128
1 16.9875 21.2424 18.7035
1 17.8573 21.2481 18.7075
1 18.7042 21.2472 18.7066
1 19.5521 21.2473 18.7067
1 20.4 21.2473 18.7067
1 21.2479 21.2474 18.7068
1 22.0948 21.2464 18.7059
1 22.9645 21.251 18.7112
1 23.7338 21.2405 18.7006
1 16.2639 22.1249 18.7126
1 16.9837 22.1015 18.7028
1 17.858 22.0932 18.7067
1 18.7042 22.0934 18.7058
1 19.5521 22.0933 18.7058
1 20.4 22.0933 18.7058
1 21.2479 22.0936 18.7059
1 22.0935 22.0919 18.705
1 22.9639 22.1048 18.7102
1 23.6965 22.0813 18.7002
1 24.5088 23.0294 18.7149
1 17.013 22.939 18.708
1 17.8511 22.9612 18.712
1 18.7048 22.9614 18.7112
1 19.5521 22.9609 18.7112
1 20.4 22.9609 18.7112
1 21.2473 22.9614 18.7113
1 22.1006 22.9623 18.7104
1 22.9416 22.9284 18.7182
1 23.962 23.0415 18.7026
1 16.7111 23.1888 18.707
1 16.9176 23.9344 18.6978
1 17.8629 23.7029 18.7009
1 18.7042 23.7365 18.7003
1 19.5521 23.734 18.7003
1 20.4 23.734 18.7003
1 21.2479 23.7366 18.7003
1 22.0892 23.7012 18.6999
1 23.0585 23.9564 18.7023
1 23.1322 23.1793 18.6947
1 16.8181 16.7735 19.5654
1 16.9167 24.4746 19.5575
1 17.8328 16.2669 19.5601
1 18.7042 16.2184 19.5597
1 19.5521 16.2211 19.5597
1 20.4 16.2211 19.5597
1 21.2479 16.2185 19.5597
1 22.1194 16.2657 19.5593
1 23.0207 24.4916 19.5619
1 23.2223 16.749 19.5537
1 24.4752 16.9327 19.5572
1 17.0029 17.0169 19.5431
1 17.8446 16.988 19.5501
1 18.7048 16.9917 19.5491
1 19.5521 16.9922 19.5492
1 20.4 16.9922 19.5492
1 21.2473 16.9917 19.5493
1 22.1077 16.989 19.5487
1 22.9348 17.0102 19.5532
1 23.9181 16.9099 19.5448
1 16.2707 17.8414 19.5599
1 16.9857 17.8412 19.5503
1 17.8588 17.861 19.5549
1 18.7042 17.8593 19.554
1 19.5521 17.8595 19.5541
1 20.4 17.8595 19.5541
1 21.2479 17.8594 19.5542
1 22.0939 17.8596 19.5533
1 22.965 17.8584 19.5579
1 23.6994 17.8581 19.5475
1 16.2207 18.7123 19.5594
1 16.9879 18.7018 19.5493
1 17.8575 18.7063 19.554
1 18.7042 18.7053 19.5532
1 19.5521 18.7054 19.5533
1 20.4 18.7054 19.5532
1 21.2479 18.7055 19.5533
1 22.0945 18.7046 19.5525
1 22.9639 18.7103 19.5572
1 23.731 18.6987 19.5472
1 16.2235 19.5595 19.5595
1 16.9886 19.5483 19.5494
1 17.8577 19.5536 19.5541
1 18.7042 19.5526 19.5533
1 19.5521 19.5527 19.5533
1 20.4 19.5527 19.5533
1 21.2479 19.5528 19.5534
1 22.0944 19.5519 19.5526
1 22.9636 19.5571 19.5572
1 23.7287 19.5459 19.5472
1 16.2235 20.4068 19.5595
1 16.9885 20.3957 19.5494
1 17.8577 20.4009 19.5541
1 18.7042 20.3999 19.5532
1 19.5521 20.4 19.5533
1 20.4 20.4 19.5533
1 21.2479 20.4001 19.5534
1 22.0944 20.3992 19.5526
1 22.9636 20.4044 19.5572
1 23.7286 20.3932 19.5472
1 16.2211 21.254 19.5595
1 16.9882 21.2424 19.5494
1 17.8576 21.2482 19.5542
1 18.7042 21.2472 19.5533
1 19.5521 21.2473 19.5534
1 20.4 21.2473 19.5534
1 21.2479 21.2474 19.5535
1 22.0946 21.2464 19.5526
1 22.9641 21.251 19.5573
1 23.7314 21.2405 19.5472
1 16.2664 22.1249 19.5591
1 16.9843 22.1014 19.5488
1 17.8582 22.0931 19.5533
1 18.7042 22.0933 19.5524