1000
Atoms. Timestep: 0
W 0 0 0
W 4.08 0 0
W 8.16 0 0
W 12.24 0 0
W 16.32 0 0
W 20.4 0 0
W 24.48 0 0
W 28.56 0 0
W 32.64 0 0
W 36.72 0 0
W 0 4.08 0
W 4.08 4.08 0
W 8.16 4.08 0
W 12.24 4.08 0
W 16.32 4.08 0
W 20.4 4.08 0
W 24.48 4.08 0
W 28.56 4.08 0
W 32.64 4.08 0
W 36.72 4.08 0
W 0 8.16 0
W 4.08 8.16 0
W 8.16 8.16 0
W 12.24 8.16 0
W 16.32 8.16 0
W 20.4 8.16 0
W 24.48 8.16 0
W 28.56 8.16 0
W 32.64 8.16 0
W 36.72 8.16 0
W 0 12.24 0
W 4.08 12.24 0
W 8.16 12.24 0
W 12.24 12.24 0
W 16.32 12.24 0
W 20.4 12.24 0
W 24.48 12.24 0
W 28.56 12.24 0
W 32.64 12.24 0
W 36.72 12.24 0
W 0 16.32 0
W 4.08 16.32 0
W 8.16 16.32 0
W 12.24 16.32 0
W 16.32 16.32 0
W 20.4 16.32 0
W 24.48 16.32 0
W 28.56 16.32 0
W 32.64 16.32 0
W 36.72 16.32 0
W 0 20.4 0
W 4.08 20.4 0
W 8.16 20.4 0
W 12.24 20.4 0
W 16.32 20.4 0
W 20.4 20.4 0
W 24.48 20.4 0
W 28.56 20.4 0
W 32.64 20.4 0
W 36.72 20.4 0
W 0 24.48 0
W 4.08 24.48 0
W 8.16 24.48 0
W 12.24 24.48 0
W 16.32 24.48 0
W 20.4 24.48 0
W 24.48 24.48 0
W 28.56 24.48 0
W 32.64 24.48 0
W 36.72 24.48 0
W 0 28.56 0
W 4.08 28.56 0
W 8.16 28.56 0
W 12.24 28.56 0
W 16.32 28.56 0
W 20.4 28.56 0
W 24.48 28.56 0
W 28.56 28.56 0
W 32.64 28.56 0
W 36.72 28.56 0
W 0 32.64 0
W 4.08 32.64 0
W 8.16 32.64 0
W 12.24 32.64 0
W 16.32 32.64 0
W 20.4 32.64 0
W 24.48 32.64 0
W 28.56 32.64 0
W 32.64 32.64 0
W 36.72 32.64 0
W 0 36.72 0
W 4.08 36.72 0
W 8.16 36.72 0
W 12.24 36.72 0
W 16.32 36.72 0
W 20.4 36.72 0
W 24.48 36.72 0
W 28.56 36.72 0
W 32.64 36.72 0
W 36.72 36.72 0
W 0 0 4.08
W 4.08 0 4.08
W 8.16 0 4.08
W 12.24 0 4.08
W 16.32 0 4.08
W 20.4 0 4.08
W 24.48 0 4.08
W 28.56 0 4.08
W 32.64 0 4.08
W 36.72 0 4.08
W 0 4.08 4.08
W 4.08 4.08 4.08
W 8.16 4.08 4.08
W 12.24 4.08 4.08
W 16.32 4.08 4.08
W 20.4 4.08 4.08
W 24.48 4.08 4.08
W 28.56 4.08 4.08
W 32.64 4.08 4.08
W 36.72 4.08 4.08
W 0 8.16 4.08
W 4.08 8.16 4.08
W 8.16 8.16 4.08
W 12.24 8.16 4.08
W 16.32 8.16 4.08
W 20.4 8.16 4.08
W 24.48 8.16 4.08
W 28.56 8.16 4.08
W 32.64 8.16 4.08
W 36.72 8.16 4.08
W 0 12.24 4.08
W 4.08 12.24 4.08
W 8.16 12.24 4.08
W 12.24 12.24 4.08
W 16.32 12.24 4.08
W 20.4 12.24 4.08
W 24.48 12.24 4.08
W 28.56 12.24 4.08
W 32.64 12.24 4.08
W 36.72 12.24 4.08
W 0 16.32 4.08
W 4.08 16.32 4.08
W 8.16 16.32 4.08
W 12.24 16.32 4.08
W 16.32 16.32 4.08
W 20.4 16.32 4.08
W 24.48 16.32 4.08
W 28.56 16.32 4.08
W 32.64 16.32 4.08
W 36.72 16.32 4.08
W 0 20.4 4.08
W 4.08 20.4 4.08
W 8.16 20.4 4.08
W 12.24 20.4 4.08
W 16.32 20.4 4.08
W 20.4 20.4 4.08
W 24.48 20.4 4.08
W 28.56 20.4 4.08
W 32.64 20.4 4.08
W 36.72 20.4 4.08
W 0 24.48 4.08
W 4.08 24.48 4.08
W 8.16 24.48 4.08
W 12.24 24.48 4.08
W 16.32 24.48 4.08
W 20.4 24.48 4.08
W 24.48 24.48 4.08
W 28.56 24.48 4.08
W 32.64 24.48 4.08
W 36.72 24.48 4.08
W 0 28.56 4.08
W 4.08 28.56 4.08
W 8.16 28.56 4.08
W 12.24 28.56 4.08
W 16.32 28.56 4.08
W 20.4 28.56 4.08
W 24.48 28.56 4.08
W 28.56 28.56 4.08
W 32.64 28.56 4.08
W 36.72 28.56 4.08
W 0 32.64 4.08
W 4.08 32.64 4.08
W 8.16 32.64 4.08
W 12.24 32.64 4.08
W 16.32 32.64 4.08
W 20.4 32.64 4.08
W 24.48 32.64 4.08
W 28.56 32.64 4.08
W 32.64 32.64 4.08
W 36.72 32.64 4.08
W 0 36.72 4.08
W 4.08 36.72 4.08
W 8.16 36.72 4.08
W 12.24 36.72 4.08
W 16.32 36.72 4.08
W 20.4 36.72 4.08
W 24.48 36.72 4.08
W 28.56 36.72 4.08
W 32.64 36.72 4.08
W 36.72 36.72 4.08
W 0 0 8.16
W 4.08 0 8.16
W 8.16 0 8.16
W 12.24 0 8.16
W 16.32 0 8.16
W 20.4 0 8.16
W 24.48 0 8.16
W 28.56 0 8.16
W 32.64 0 8.16
W 36.72 0 8.16
W 0 4.08 8.16
W 4.08 4.08 8.16
W 8.16 4.08 8.16
W 12.24 4.08 8.16
W 16.32 4.08 8.16
W 20.4 4.08 8.16
W 24.48 4.08 8.16
W 28.56 4.08 8.16
W 32.64 4.08 8.16
W 36.72 4.08 8.16
W 0 8.16 8.16
W 4.08 8.16 8.16
W 8.16 8.16 8.16
W 12.24 8.16 8.16
W 16.32 8.16 8.16
W 20.4 8.16 8.16
W 24.48 8.16 8.16
W 28.56 8.16 8.16
W 32.64 8.16 8.16
W 36.72 8.16 8.16
W 0 12.24 8.16
W 4.08 12.24 8.16
W 8.16 12.24 8.16
W 12.24 12.24 8.16
W 16.32 12.24 8.16
W 20.4 12.24 8.16
W 24.48 12.24 8.16
W 28.56 12.24 8.16
W 32.64 12.24 8.16
W 36.72 12.24 8.16
W 0 16.32 8.16
W 4.08 16.32 8.16
W 8.16 16.32 8.16
W 12.24 16.32 8.16
W 16.32 16.32 8.16
W 20.4 16.32 8.16
W 24.48 16.32 8.16
W 28.56 16.32 8.16
W 32.64 16.32 8.16
W 36.72 16.32 8.16
W 0 20.4 8.16
W 4.08 20.4 8.16
W 8.16 20.4 8.16
W 12.24 20.4 8.16
W 16.32 20.4 8.16
W 20.4 20.4 8.16
W 24.48 20.4 8.16
W 28.56 20.4 8.16
W 32.64 20.4 8.16
W 36.72 20.4 8.16
W 0 24.48 8.16
W 4.08 24.48 8.16
W 8.16 24.48 8.16
W 12.24 24.48 8.16
W 16.32 24.48 8.16
W 20.4 24.48 8.16
W 24.48 24.48 8.16
W 28.56 24.48 8.16
W 32.64 24.48 8.16
W 36.72 24.48 8.16
W 0 28.56 8.16
W 4.08 28.56 8.16
W 8.16 28.56 8.16
W 12.24 28.56 8.16
W 16.32 28.56 8.16
W 20.4 28.56 8.16
W 24.48 28.56 8.16
W 28.56 28.56 8.16
W 32.64 28.56 8.16
W 36.72 28.56 8.16
W 0 32.64 8.16
W 4.08 32.64 8.16
W 8.16 32.64 8.16
W 12.24 32.64 8.16
W 16.32 32.64 8.16
W 20.4 32.64 8.16
W 24.48 32.64 8.16
W 28.56 32.64 8.16
W 32.64 32.64 8.16
W 36.72 32.64 8.16
W 0 36.72 8.16
W 4.08 36.72 8.16
W 8.16 36.72 8.16
W 12.24 36.72 8.16
W 16.32 36.72 8.16
W 20.4 36.72 8.16
W 24.48 36.72 8.16
W 28.56 36.72 8.16
W 32.64 36.72 8.16
W 36.72 36.72 8.16
W 0 0 12.24
W 4.08 0 12.24
W 8.16 0 12.24
W 12.24 0 12.24
W 16.32 0 12.24
W 20.4 0 12.24
W 24.48 0 12.24
W 28.56 0 12.24
W 32.64 0 12.24
W 36.72 0 12.24
W 0 4.08 12.24
W 4.08 4.08 12.24
W 8.16 4.08 12.24
W 12.24 4.08 12.24
W 16.32 4.08 12.24
W 20.4 4.08 12.24
W 24.48 4.08 12.24
W 28.56 4.08 12.24
W 32.64 4.08 12.24
W 36.72 4.08 12.24
W 0 8.16 12.24
W 4.08 8.16 12.24
W 8.16 8.16 12.24
W 12.24 8.16 12.24
W 16.32 8.16 12.24
W 20.4 8.16 12.24
W 24.48 8.16 12.24
W 28.56 8.16 12.24
W 32.64 8.16 12.24
W 36.72 8.16 12.24
W 0 12.24 12.24
W 4.08 12.24 12.24
W 8.16 12.24 12.24
W 12.24 12.24 12.24
W 16.32 12.24 12.24
W 20.4 12.24 12.24
W 24.48 12.24 12.24
W 28.56 12.24 12.24
W 32.64 12.24 12.24
W 36.72 12.24 12.24
W 0 16.32 12.24
W 4.08 16.32 12.24
W 8.16 16.32 12.24
W 12.24 16.32 12.24
W 16.32 16.32 12.24
W 20.4 16.32 12.24
W 24.48 16.32 12.24
W 28.56 16.32 12.24
W 32.64 16.32 12.24
W 36.72 16.32 12.24
W 0 20.4 12.24
W 4.08 20.4 12.24
W 8.16 20.4 12.24
W 12.24 20.4 12.24
W 16.32 20.4 12.24
W 20.4 20.4 12.24
W 24.48 20.4 12.24
W 28.56 20.4 12.24
W 32.64 20.4 12.24
W 36.72 20.4 12.24
W 0 24.48 12.24
W 4.08 24.48 12.24
W 8.16 24.48 12.24
W 12.24 24.48 12.24
W 16.32 24.48 12.24
W 20.4 24.48 12.24
W 24.48 24.48 12.24
W 28.56 24.48 12.24
W 32.64 24.48 12.24
W 36.72 24.48 12.24
W 0 28.56 12.24
W 4.08 28.56 12.24
W 8.16 28.56 12.24
W 12.24 28.56 12.24
W 16.32 28.56 12.24
W 20.4 28.56 12.24
W 24.48 28.56 12.24
W 28.56 28.56 12.24
W 32.64 28.56 12.24
W 36.72 28.56 12.24
W 0 32.64 12.24
W 4.08 32.64 12.24
W 8.16 32.64 12.24
W 12.24 32.64 12.24
W 16.32 32.64 12.24
W 20.4 32.64 12.24
W 24.48 32.64 12.24
W 28.56 32.64 12.24
W 32.64 32.64 12.24
W 36.72 32.64 12.24
W 0 36.72 12.24
W 4.08 36.72 12.24
W 8.16 36.72 12.24
W 12.24 36.72 12.24
W 16.32 36.72 12.24
W 20.4 36.72 12.24
W 24.48 36.72 12.24
W 28.56 36.72 12.24
W 32.64 36.72 12.24
W 36.72 36.72 12.24
W 0 0 16.32
W 4.08 0 16.32
W 8.16 0 16.32
W 12.24 0 16.32
W 16.32 0 16.32
W 20.4 0 16.32
W 24.48 0 16.32
W 28.56 0 16.32
W 32.64 0 16.32
W 36.72 0 16.32
W 0 4.08 16.32
W 4.08 4.08 16.32
W 8.16 4.08 16.32
W 12.24 4.08 16.32
W 16.32 4.08 16.32
W 20.4 4.08 16.32
W 24.48 4.08 16.32
W 28.56 4.08 16.32
W 32.64 4.08 16.32
W 36.72 4.08 16.32
W 0 8.16 16.32
W 4.08 8.16 16.32
W 8.16 8.16 16.32
W 12.24 8.16 16.32
W 16.32 8.16 16.32
W 20.4 8.16 16.32
W 24.48 8.16 16.32
W 28.56 8.16 16.32
W 32.64 8.16 16.32
W 36.72 8.16 16.32
W 0 12.24 16.32
W 4.08 12.24 16.32
W 8.16 12.24 16.32
W 12.24 12.24 16.32
W 16.32 12.24 16.32
W 20.4 12.24 16.32
W 24.48 12.24 16.32
W 28.56 12.24 16.32
W 32.64 12.24 16.32
W 36.72 12.24 16.32
W 0 16.32 16.32
W 4.08 16.32 16.32
W 8.16 16.32 16.32
W 12.24 16.32 16.32
W 16.32 16.32 16.32
W 20.4 16.32 16.32
W 24.48 16.32 16.32
W 28.56 16.32 16.32
W 32.64 16.32 16.32
W 36.72 16.32 16.32
W 0 20.4 16.32
W 4.08 20.4 16.32
W 8.16 20.4 16.32
W 12.24 20.4 16.32
W 16.32 20.4 16.32
W 20.4 20.4 16.32
W 24.48 20.4 16.32
W 28.56 20.4 16.32
W 32.64 20.4 16.32
W 36.72 20.4 16.32
W 0 24.48 16.32
W 4.08 24.48 16.32
W 8.16 24.48 16.32
W 12.24 24.48 16.32
W 16.32 24.48 16.32
W 20.4 24.48 16.32
W 24.48 24.48 16.32
W 28.56 24.48 16.32
W 32.64 24.48 16.32
W 36.72 24.48 16.32
W 0 28.56 16.32
W 4.08 28.56 16.32
W 8.16 28.56 16.32
W 12.24 28.56 16.32
W 16.32 28.56 16.32
W 20.4 28.56 16.32
W 24.48 28.56 16.32
W 28.56 28.56 16.32
W 32.64 28.56 16.32
W 36.72 28.56 16.32
W 0 32.64 16.32
W 4.08 32.64 16.32
W 8.16 32.64 16.32
W 12.24 32.64 16.32
W 16.32 32.64 16.32
W 20.4 32.64 16.32
W 24.48 32.64 16.32
W 28.56 32.64 16.32
W 32.64 32.64 16.32
W 36.72 32.64 16.32
W 0 36.72 16.32
W 4.08 36.72 16.32
W 8.16 36.72 16.32
W 12.24 36.72 16.32
W 16.32 36.72 16.32
W 20.4 36.72 16.32
W 24.48 36.72 16.32
W 28.56 36.72 16.32
W 32.64 36.72 16.32
W 36.72 36.72 16.32
W 0 0 20.4
W 4.08 0 20.4
W 8.16 0 20.4
W 12.24 0 20.4
W 16.32 0 20.4
W 20.4 0 20.4
W 24.48 0 20.4
W 28.56 0 20.4
W 32.64 0 20.4
W 36.72 0 20.4
W 0 4.08 20.4
W 4.08 4.08 20.4
W 8.16 4.08 20.4
W 12.24 4.08 20.4
W 16.32 4.08 20.4
W 20.4 4.08 20.4
W 24.48 4.08 20.4
W 28.56 4.08 20.4
W 32.64 4.08 20.4
W 36.72 4.08 20.4
W 0 8.16 20.4
W 4.08 8.16 20.4
W 8.16 8.16 20.4
W 12.24 8.16 20.4
W 16.32 8.16 20.4
W 20.4 8.16 20.4
W 24.48 8.16 20.4
W 28.56 8.16 20.4
W 32.64 8.16 20.4
W 36.72 8.16 20.4
W 0 12.24 20.4
W 4.08 12.24 20.4
W 8.16 12.24 20.4
W 12.24 12.24 20.4
W 16.32 12.24 20.4
W 20.4 12.24 20.4
W 24.48 12.24 20.4
W 28.56 12.24 20.4
W 32.64 12.24 20.4
W 36.72 12.24 20.4
W 0 16.32 20.4
W 4.08 16.32 20.4
W 8.16 16.32 20.4
W 12.24 16.32 20.4
W 16.32 16.32 20.4
W 20.4 16.32 20.4
W 24.48 16.32 20.4
W 28.56 16.32 20.4
W 32.64 16.32 20.4
W 36.72 16.32 20.4
W 0 20.4 20.4
W 4.08 20.4 20.4
W 8.16 20.4 20.4
W 12.24 20.4 20.4
W 16.32 20.4 20.4
W 20.4 20.4 20.4
W 24.48 20.4 20.4
W 28.56 20.4 20.4
W 32.64 20.4 20.4
W 36.72 20.4 20.4
W 0 24.48 20.4
W 4.08 24.48 20.4
W 8.16 24.48 20.4
W 12.24 24.48 20.4
W 16.32 24.48 20.4
W 20.4 24.48 20.4
W 24.48 24.48 20.4
W 28.56 24.48 20.4
W 32.64 24.48 20.4
W 36.72 24.48 20.4
W 0 28.56 20.4
W 4.08 28.56 20.4
W 8.16 28.56 20.4
W 12.24 28.56 20.4
W 16.32 28.56 20.4
W 20.4 28.56 20.4
W 24.48 28.56 20.4
W 28.56 28.56 20.4
W 32.64 28.56 20.4
W 36.72 28.56 20.4
W 0 32.64 20.4
W 4.08 32.64 20.4
W 8.16 32.64 20.4
W 12.24 32.64 20.4
W 16.32 32.64 20.4
W 20.4 32.64 20.4
W 24.48 32.64 20.4
W 28.56 32.64 20.4
W 32.64 32.64 20.4
W 36.72 32.64 20.4
W 0 36.72 20.4
W 4.08 36.72 20.4
W 8.16 36.72 20.4
W 12.24 36.72 20.4
W 16.32 36.72 20.4
W 20.4 36.72 20.4
W 24.48 36.72 20.4
W 28.56 36.72 20.4
W 32.64 36.72 20.4
W 36.72 36.72 20.4
W 0 0 24.48
W 4.08 0 24.48
W 8.16 0 24.48
W 12.24 0 24.48
W 16.32 0 24.48
W 20.4 0 24.48
W 24.48 0 24.48
W 28.56 0 24.48
W 32.64 0 24.48
W 36.72 0 24.48
W 0 4.08 24.48
W 4.08 4.08 24.48
W 8.16 4.08 24.48
W 12.24 4.08 24.48
W 16.32 4.08 24.48
W 20.4 4.08 24.48
W 24.48 4.08 24.48
W 28.56 4.08 24.48
W 32.64 4.08 24.48
W 36.72 4.08 24.48
W 0 8.16 24.48
W 4.08 8.16 24.48
W 8.16 8.16 24.48
W 12.24 8.16 24.48
W 16.32 8.16 24.48
W 20.4 8.16 24.48
W 24.48 8.16 24.48
W 28.56 8.16 24.48
W 32.64 8.16 24.48
W 36.72 8.16 24.48
W 0 12.24 24.48
W 4.08 12.24 24.48
W 8.16 12.24 24.48
W 12.24 12.24 24.48
W 16.32 12.24 24.48
W 20.4 12.24 24.48
W 24.48 12.24 24.48
W 28.56 12.24 24.48
W 32.64 12.24 24.48
W 36.72 12.24 24.48
W 0 16.32 24.48
W 4.08 16.32 24.48
W 8.16 16.32 24.48
W 12.24 16.32 24.48
W 16.32 16.32 24.48
W 20.4 16.32 24.48
W 24.48 16.32 24.48
W 28.56 16.32 24.48
W 32.64 16.32 24.48
W 36.72 16.32 24.48
W 0 20.4 24.48
W 4.08 20.4 24.48
W 8.16 20.4 24.48
W 12.24 20.4 24.48
W 16.32 20.4 24.48
W 20.4 20.4 24.48
W 24.48 20.4 24.48
W 28.56 20.4 24.48
W 32.64 20.4 24.48
W 36.72 20.4 24.48
W 0 24.48 24.48
W 4.08 24.48 24.48
W 8.16 24.48 24.48
W 12.24 24.48 24.48
W 16.32 24.48 24.48
W 20.4 24.48 24.48
W 24.48 24.48 24.48
W 28.56 24.48 24.48
W 32.64 24.48 24.48
W 36.72 24.48 24.48
W 0 28.56 24.48
W 4.08 28.56 24.48
W 8.16 28.56 24.48
W 12.24 28.56 24.48
W 16.32 28.56 24.48
W 20.4 28.56 24.48
W 24.48 28.56 24.48
W 28.56 28.56 24.48
W 32.64 28.56 24.48
W 36.72 28.56 24.48
W 0 32.64 24.48
W 4.08 32.64 24.48
W 8.16 32.64 24.48
W 12.24 32.64 24.48
W 16.32 32.64 24.48
W 20.4 32.64 24.48
W 24.48 32.64 24.48
W 28.56 32.64 24.48
W 32.64 32.64 24.48
W 36.72 32.64 24.48
W 0 36.72 24.48
W 4.08 36.72 24.48
W 8.16 36.72 24.48
W 12.24 36.72 24.48
W 16.32 36.72 24.48
W 20.4 36.72 24.48
W 24.48 36.72 24.48
W 28.56 36.72 24.48
W 32.64 36.72 24.48
W 36.72 36.72 24.48
W 0 0 28.56
W 4.08 0 28.56
W 8.16 0 28.56
W 12.24 0 28.56
W 16.32 0 28.56
W 20.4 0 28.56
W 24.48 0 28.56
W 28.56 0 28.56
W 32.64 0 28.56
W 36.72 0 28.56
W 0 4.08 28.56
W 4.08 4.08 28.56
W 8.16 4.08 28.56
W 12.24 4.08 28.56
W 16.32 4.08 28.56
W 20.4 4.08 28.56
W 24.48 4.08 28.56
W 28.56 4.08 28.56
W 32.64 4.08 28.56
W 36.72 4.08 28.56
W 0 8.16 28.56
W 4.08 8.16 28.56
W 8.16 8.16 28.56
W 12.24 8.16 28.56
W 16.32 8.16 28.56
W 20.4 8.16 28.56
W 24.48 8.16 28.56
W 28.56 8.16 28.56
W 32.64 8.16 28.56
W 36.72 8.16 28.56
W 0 12.24 28.56
W 4.08 12.24 28.56
W 8.16 12.24 28.56
W 12.24 12.24 28.56
W 16.32 12.24 28.56
W 20.4 12.24 28.56
W 24.48 12.24 28.56
W 28.56 12.24 28.56
W 32.64 12.24 28.56
W 36.72 12.24 28.56
W 0 16.32 28.56
W 4.08 16.32 28.56
W 8.16 16.32 28.56
W 12.24 16.32 28.56
W 16.32 16.32 28.56
W 20.4 16.32 28.56
W 24.48 16.32 28.56
W 28.56 16.32 28.56
W 32.64 16.32 28.56
W 36.72 16.32 28.56
W 0 20.4 28.56
W 4.08 20.4 28.56
W 8.16 20.4 28.56
W 12.24 20.4 28.56
W 16.32 20.4 28.56
W 20.4 20.4 28.56
W 24.48 20.4 28.56
W 28.56 20.4 28.56
W 32.64 20.4 28.56
W 36.72 20.4 28.56
W 0 24.48 28.56
W 4.08 24.48 28.56
W 8.16 24.48 28.56
W 12.24 24.48 28.56
W 16.32 24.48 28.56
W 20.4 24.48 28.56
W 24.48 24.48 28.56
W 28.56 24.48 28.56
W 32.64 24.48 28.56
W 36.72 24.48 28.56
W 0 28.56 28.56
W 4.08 28.56 28.56
W 8.16 28.56 28.56
W 12.24 28.56 28.56
W 16.32 28.56 28.56
W 20.4 28.56 28.56
W 24.48 28.56 28.56
W 28.56 28.56 28.56
W 32.64 28.56 28.56
W 36.72 28.56 28.56
W 0 32.64 28.56
W 4.08 32.64 28.56
W 8.16 32.64 28.56
W 12.24 32.64 28.56
W 16.32 32.64 28.56
W 20.4 32.64 28.56
W 24.48 32.64 28.56
W 28.56 32.64 28.56
W 32.64 32.64 28.56
W 36.72 32.64 28.56
W 0 36.72 28.56
W 4.08 36.72 28.56
W 8.16 36.72 28.56
W 12.24 36.72 28.56
W 16.32 36.72 28.56
W 20.4 36.72 28.56
W 24.48 36.72 28.56
W 28.56 36.72 28.56
W 32.64 36.72 28.56
W 36.72 36.72 28.56
W 0 0 32.64
W 4.08 0 32.64
W 8.16 0 32.64
W 12.24 0 32.64
W 16.32 0 32.64
W 20.4 0 32.64
W 24.48 0 32.64
W 28.56 0 32.64
W 32.64 0 32.64
W 36.72 0 32.64
W 0 4.08 32.64
W 4.08 4.08 32.64
W 8.16 4.08 32.64
W 12.24 4.08 32.64
W 16.32 4.08 32.64
W 20.4 4.08 32.64
W 24.48 4.08 32.64
W 28.56 4.08 32.64
W 32.64 4.08 32.64
W 36.72 4.08 32.64
W 0 8.16 32.64
W 4.08 8.16 32.64
W 8.16 8.16 32.64
W 12.24 8.16 32.64
W 16.32 8.16 32.64
W 20.4 8.16 32.64
W 24.48 8.16 32.64
W 28.56 8.16 32.64
W 32.64 8.16 32.64
W 36.72 8.16 32.64
W 0 12.24 32.64
W 4.08 12.24 32.64
W 8.16 12.24 32.64
W 12.24 12.24 32.64
W 16.32 12.24 32.64
W 20.4 12.24 32.64
W 24.48 12.24 32.64
W 28.56 12.24 32.64
W 32.64 12.24 32.64
W 36.72 12.24 32.64
W 0 16.32 32.64
W 4.08 16.32 32.64
W 8.16 16.32 32.64
W 12.24 16.32 32.64
W 16.32 16.32 32.64
W 20.4 16.32 32.64
W 24.48 16.32 32.64
W 28.56 16.32 32.64
W 32.64 16.32 32.64
W 36.72 16.32 32.64
W 0 20.4 32.64
W 4.08 20.4 32.64
W 8.16 20.4 32.64
W 12.24 20.4 32.64
W 16.32 20.4 32.64
W 20.4 20.4 32.64
W 24.48 20.4 32.64
W 28.56 20.4 32.64
W 32.64 20.4 32.64
W 36.72 20.4 32.64
W 0 24.48 32.64
W 4.08 24.48 32.64
W 8.16 24.48 32.64
W 12.24 24.48 32.64
W 16.32 24.48 32.64
W 20.4 24.48 32.64
W 24.48 24.48 32.64
W 28.56 24.48 32.64
W 32.64 24.48 32.64
W 36.72 24.48 32.64
W 0 28.56 32.64
W 4.08 28.56 32.64
W 8.16 28.56 32.64
W 12.24 28.56 32.64
W 16.32 28.56 32.64
W 20.4 28.56 32.64
W 24.48 28.56 32.64
W 28.56 28.56 32.64
W 32.64 28.56 32.64
W 36.72 28.56 32.64
W 0 32.64 32.64
W 4.08 32.64 32.64
W 8.16 32.64 32.64
W 12.24 32.64 32.64
W 16.32 32.64 32.64
W 20.4 32.64 32.64
W 24.48 32.64 32.64
W 28.56 32.64 32.64
W 32.64 32.64 32.64
W 36.72 32.64 32.64
W 0 36.72 32.64
W 4.08 36.72 32.64
W 8.16 36.72 32.64
W 12.24 36.72 32.64
W 16.32 36.72 32.64
W 20.4 36.72 32.64
W 24.48 36.72 32.64
W 28.56 36.72 32.64
W 32.64 36.72 32.64
W 36.72 36.72 32.64
W 0 0 36.72
W 4.08 0 36.72
W 8.16 0 36.72
W 12.24 0 36.72
W 16.32 0 36.72
W 20.4 0 36.72
W 24.48 0 36.72
W 28.56 0 36.72
W 32.64 0 36.72
W 36.72 0 36.72
W 0 4.08 36.72
W 4.08 4.08 36.72
W 8.16 4.08 36.72
W 12.24 4.08 36.72
W 16.32 4.08 36.72
W 20.4 4.08 36.72
W 24.48 4.08 36.72
W 28.56 4.08 36.72
W 32.64 4.08 36.72
W 36.72 4.08 36.72
W 0 8.16 36.72
W 4.08 8.16 36.72
W 8.16 8.16 36.72
W 12.24 8.16 36.72
W 16.32 8.16 36.72
W 20.4 8.16 36.72
W 24.48 8.16 36.72
W 28.56 8.16 36.72
W 32.64 8.16 36.72
W 36.72 8.16 36.72
W 0 12.24 36.72
W 4.08 12.24 36.72
W 8.16 12.24 36.72
W 12.24 12.24 36.72
W 16.32 12.24 36.72
W 20.4 12.24 36.72
W 24.48 12.24 36.72
W 28.56 12.24 36.72
W 32.64 12.24 36.72
W 36.72 12.24 36.72
W 0 16.32 36.72
W 4.08 16.32 36.72
W 8.16 16.32 36.72
W 12.24 16.32 36.72
W 16.32 16.32 36.72
W 20.4 16.32 36.72
W 24.48 16.32 36.72
W 28.56 16.32 36.72
W 32.64 16.32 36.72
W 36.72 16.32 36.72
W 0 20.4 36.72
W 4.08 20.4 36.72
W 8.16 20.4 36.72
W 12.24 20.4 36.72
W 16.32 20.4 36.72
W 20.4 20.4 36.72
W 24.48 20.4 36.72
W 28.56 20.4 36.72
W 32.64 20.4 36.72
W 36.72 20.4 36.72
W 0 24.48 36.72
W 4.08 24.48 36.72
W 8.16 24.48 36.72
W 12.24 24.48 36.72
W 16.32 24.48 36.72
W 20.4 24.48 36.72
W 24.48 24.48 36.72
W 28.56 24.48 36.72
W 32.64 24.48 36.72
W 36.72 24.48 36.72
W 0 28.56 36.72
W 4.08 28.56 36.72
W 8.16 28.56 36.72
W 12.24 28.56 36.72
W 16.32 28.56 36.72
W 20.4 28.56 36.72
W 24.48 28.56 36.72
W 28.56 28.56 36.72
W 32.64 28.56 36.72
W 36.72 28.56 36.72
W 0 32.64 36.72
W 4.08 32.64 36.72
W 8.16 32.64 36.72
W 12.24 32.64 36.72
W 16.32 32.64 36.72
W 20.4 32.64 36.72
W 24.48 32.64 36.72
W 28.56 32.64 36.72
W 32.64 32.64 36.72
W 36.72 32.64 36.72
W 0 36.72 36.72
W 4.08 36.72 36.72
W 8.16 36.72 36.72
W 12.24 36.72 36.72
W 16.32 36.72 36.72
W 20.4 36.72 36.72
W 24.48 36.72 36.72
W 28.56 36.72 36.72
W 32.64 36.72 36.72
W 36.72 36.72 36.72
